ITEM: TIMESTEP
1000000000
ITEM: NUMBER OF ATOMS
1000
ITEM: BOX BOUNDS xy xz yz pp pp pp
-8.68233 8.68233 2.72848e-12
-8.68233 8.68233 0
-8.68233 8.68233 0
ITEM: ATOMS id radius x y z 
1 0.757175 4.77864 -4.82046 3.58949 
2 0.92322 -1.22428 3.2898 1.68701 
3 0.827985 4.28602 0.360937 -3.28335 
4 1.1762 4.46554 3.5133 -1.50506 
5 1.10143 4.68538 -4.93918 -4.11417 
6 1.10007 -3.6663 2.64398 -6.72221 
7 1.03313 -7.62562 -8.48379 -0.933011 
8 0.868955 -4.5424 6.86902 -4.20331 
9 0.60104 7.50707 3.30735 -5.94771 
10 1.26866 -8.37637 2.51217 8.47975 
11 0.95832 4.22257 -0.847092 -4.89821 
12 1.06762 6.7798 4.04426 -1.01135 
13 0.74701 0.356471 -8.6266 6.87277 
14 1.05977 1.71138 3.39064 -0.514995 
15 1.19409 -4.95386 -1.32688 4.4363 
16 0.99784 -7.89531 -2.96678 -2.97382 
17 0.94975 2.65391 -4.26366 -0.628129 
18 0.601815 7.87194 5.41819 -8.1361 
19 0.607715 -2.90807 5.34515 -6.43634 
20 0.975395 -3.86231 7.96346 3.89047 
21 0.879855 4.93428 1.51697 2.09346 
22 0.97883 -0.887827 -2.91197 6.58926 
23 1.17199 -0.224768 -4.73745 -6.61265 
24 1.08188 -5.29691 -7.82336 -7.03248 
25 0.76006 -8.53619 -7.42745 -4.1168 
26 1.12427 -4.32445 7.74019 -7.8948 
27 1.15796 0.213605 -4.43871 3.59983 
28 0.83132 -2.21688 -0.719374 -1.23903 
29 1.11726 -0.0380243 -6.2159 7.76038 
30 0.71388 3.56269 5.44887 5.42431 
31 0.907335 -3.30744 -3.05654 -8.28178 
32 0.925355 1.87582 5.48059 -2.64366 
33 0.856505 6.931 -4.81354 5.29372 
34 1.14075 3.24939 2.54565 -8.00637 
35 1.16739 -0.103843 -4.45913 -4.56067 
36 1.09753 2.69328 -8.04496 7.10808 
37 0.938795 0.0528492 2.29996 -5.22956 
38 0.90758 3.94219 -1.45538 -0.340965 
39 1.06868 -4.81053 -4.59791 -3.86494 
40 1.09297 2.24605 -2.86146 -7.50776 
41 1.20096 -0.22592 0.861367 5.52446 
42 0.96541 -1.85126 -2.2525 -1.4177 
43 0.70323 7.68056 0.761509 -5.33988 
44 0.93342 -6.56964 -8.22717 -5.529 
45 0.82696 0.403655 1.73383 2.47826 
46 1.04982 3.31911 4.27081 6.45004 
47 0.80432 -3.03977 4.39528 1.94901 
48 0.985175 7.45113 4.13075 6.10856 
49 0.51962 2.67761 -3.64129 -2.15102 
50 0.94317 -4.68768 0.940535 8.09387 
51 1.04833 0.640582 -4.55739 -1.48612 
52 1.17088 6.07154 1.93153 3.54328 
53 0.947155 4.53238 5.95014 4.33034 
54 1.01706 6.95133 8.59116 3.32856 
55 1.01629 -8.23631 5.63816 -3.25906 
56 0.977385 -0.802873 6.34335 -0.420995 
57 0.87967 2.81099 3.04061 7.69179 
58 0.86659 0.925387 7.97179 3.20022 
59 0.93118 -5.67444 -2.79114 -3.31164 
60 0.883925 6.74644 -3.4523 2.21304 
61 0.82357 -2.19454 0.819939 6.46823 
62 0.92012 -0.614614 -5.41444 6.16746 
63 0.97659 5.09734 1.73885 -7.00109 
64 0.90392 2.87946 6.33943 -8.47761 
65 0.99734 4.00991 -8.325 -1.40037 
66 1.11376 4.95513 0.896329 -5.17822 
67 0.67505 -0.33874 -1.10015 -5.78659 
68 1.01964 -2.37766 -8.48203 -1.92806 
69 0.7439 5.17081 3.51101 5.79309 
70 1.08228 -5.62313 4.23725 -1.45889 
71 0.95226 0.784413 6.26056 8.59707 
72 1.02897 -2.86127 0.985172 -5.89907 
73 1.01182 6.44249 5.55271 -6.23507 
74 0.92696 4.4774 -8.26558 7.47214 
75 0.91517 -8.40613 -7.72936 3.37825 
76 0.776265 -3.69567 -7.47853 1.81927 
77 1.19778 6.41524 2.3637 5.85988 
78 0.57605 3.6124 0.590672 -4.31092 
79 0.96515 -5.52616 2.05287 -4.07553 
80 1.15023 3.74243 -4.88072 -2.06245 
81 0.917435 1.70073 7.45781 -2.11298 
82 1.01706 3.82732 1.50547 7.75931 
83 0.8332 7.75566 -3.04598 -2.9279 
84 1.10134 1.46564 -4.47099 5.18205 
85 1.27197 -7.19767 -2.83347 -5.03391 
86 1.21505 -7.75858 -0.858837 -5.86107 
87 0.798185 -4.93532 -4.52739 2.9479 
88 0.82967 -7.6435 4.03421 -6.59195 
89 0.880015 -8.42584 -6.5798 -7.95236 
90 0.84355 6.68451 2.53407 -5.35453 
91 0.891355 -1.53588 6.05981 5.08026 
92 0.579615 4.82532 -1.27204 4.47141 
93 0.85287 7.2582 2.03471 7.51969 
94 0.97857 -6.41259 -3.01884 1.90161 
95 1.09883 -2.39934 7.73416 5.11104 
96 0.864315 7.75403 6.47214 4.387 
97 1.01001 6.24058 -8.14626 7.35038 
98 1.08519 4.95684 -8.24022 -5.04528 
99 0.905515 -6.32577 -6.22036 -3.50814 
100 1.12999 -7.87653 0.786076 -2.89276 
101 1.05558 2.61075 -0.869747 8.09337 
102 1.07152 -2.54083 -4.30445 -3.23695 
103 0.75994 0.353671 6.0099 -7.21911 
104 1.03021 5.08904 2.72266 -8.54876 
105 0.95934 8.4095 -7.78244 -6.81118 
106 1.14468 -6.38162 6.15307 7.41156 
107 1.01449 -0.753423 -8.03207 7.86627 
108 0.95109 4.97097 5.90772 -8.02861 
109 0.67541 0.431578 -4.97529 -3.04734 
110 0.87649 6.23596 -6.26436 2.4886 
111 0.70012 1.12791 3.78845 -5.4144 
112 0.992085 -6.78036 -1.8442 -0.365154 
113 0.861325 6.99271 -0.349892 3.78881 
114 0.96797 -5.95386 5.90731 5.53117 
115 1.30502 -8.48342 -2.82535 -6.91397 
116 0.89332 -3.06936 5.59431 -5.17065 
117 0.960455 -0.381847 2.72815 -8.35748 
118 1.13471 -3.46691 -4.23434 0.0863553 
119 0.82737 6.94161 -6.18633 -8.38221 
120 1.11333 -7.87443 -3.12396 0.73401 
121 1.11343 -3.12185 6.32683 3.96321 
122 0.92386 1.45797 -2.72504 8.28551 
123 0.667715 -1.86452 6.35266 -6.99984 
124 1.09784 2.20377 -5.85517 6.26914 
125 1.17235 -4.04855 4.10434 -2.60782 
126 0.874035 8.6036 0.547424 -4.39733 
127 0.753345 7.84101 6.07107 -7.18577 
128 0.62325 4.74785 -6.09681 0.216848 
129 0.80543 3.77676 0.731658 5.93214 
130 0.952175 -5.68062 -1.57583 -2.19029 
131 1.23916 8.0362 4.40975 7.99033 
132 0.604365 4.89698 -7.2532 6.41469 
133 0.978745 0.157567 -8.33028 4.96391 
134 0.7224 -7.41581 -7.5935 -4.60357 
135 0.685945 -5.13036 -7.22341 -0.620706 
136 0.69421 -4.7231 3.31367 1.54466 
137 0.805375 -5.51979 -0.352804 0.628487 
138 1.04913 -2.32474 4.1237 -6.94502 
139 0.898025 -6.5368 6.15116 2.37379 
140 0.76646 -7.16974 -4.63207 0.802246 
141 1.23271 -4.91761 4.39549 4.74923 
142 0.91632 6.51153 0.305107 -4.59551 
143 0.96682 0.87504 0.546665 -4.3187 
144 1.07048 -0.873627 -5.94289 0.972394 
145 0.797215 1.46277 -8.25716 5.79993 
146 1.13588 3.44554 -4.4024 4.52519 
147 0.929315 6.22303 5.98311 4.57629 
148 0.63576 -1.51853 -3.29655 5.24239 
149 0.76875 1.25961 -4.36804 2.21822 
150 1.04469 -0.276947 6.55774 1.41288 
151 0.812115 7.50927 -2.73732 -8.21538 
152 0.58756 -6.62628 -1.27819 4.17654 
153 0.64247 -3.21296 -0.314832 -0.494423 
154 1.2872 8.26193 -7.34003 -0.075909 
155 1.03155 2.50176 -2.32441 6.96727 
156 0.614865 -4.3655 -7.21901 0.818249 
157 1.07427 -0.0379701 4.40795 6.77851 
158 0.96159 -7.95607 -6.00773 -4.10419 
159 0.881965 -0.70673 -1.68475 1.90892 
160 0.71889 7.61418 6.09913 -5.36451 
161 0.69439 -3.60186 -7.23842 -4.38745 
162 1.09746 -0.611014 -2.55353 -5.00828 
163 1.09951 -6.76533 -4.53736 -8.34811 
164 0.892445 -7.06046 7.81151 7.77749 
165 1.04145 7.92626 -6.14208 2.4248 
166 0.806805 6.54286 -3.06635 3.64842 
167 0.87916 -0.382752 4.85708 -2.21567 
168 0.662575 4.03629 2.54632 -6.48168 
169 1.23553 -3.42053 5.56719 -1.1211 
170 1.03427 3.60881 7.80962 6.58487 
171 0.850855 -0.689107 -6.01469 -3.30828 
172 0.88783 1.92151 3.64293 -4.11978 
173 0.76772 1.87674 -3.8472 6.75066 
174 1.08617 4.79806 -3.31624 7.9203 
175 1.17738 -2.25822 -5.69613 -0.47516 
176 0.357733 -7.98171 -5.07098 -1.04771 
177 0.90486 3.9434 4.03515 -6.98175 
178 0.338365 -1.13432 3.15782 -2.01963 
179 1.14596 -2.87268 -0.885542 4.16279 
180 1.01958 7.07205 -6.91185 5.33522 
181 1.19722 6.40887 4.44973 1.29421 
182 1.30773 -5.54196 7.60624 -6.10144 
183 0.685235 -5.82153 -4.265 3.8823 
184 0.913345 1.23882 0.872255 1.27945 
185 0.82765 -6.0684 -2.97956 -1.62401 
186 1.29882 3.0014 0.156567 2.48641 
187 0.726695 7.77733 -5.86891 0.809532 
188 0.85627 1.30832 5.16832 -7.81846 
189 0.821795 -2.91189 -8.29192 -5.63512 
190 1.15027 6.85568 -3.7189 -1.23234 
191 0.672905 8.56989 5.69773 3.62478 
192 1.04299 7.45658 0.428299 -3.16955 
193 0.978275 -7.33558 -4.84693 -6.51899 
194 0.965235 3.8679 4.30668 8.67823 
195 0.952275 1.93336 2.46697 1.2391 
196 0.93978 -4.83854 7.1754 -2.65255 
197 1.17901 -2.6571 -2.88403 -4.69306 
198 1.23236 -4.9868 -3.35554 5.07988 
199 0.782935 -8.29301 7.37678 6.90881 
200 0.7608 -1.01621 0.377126 -0.817098 
201 1.03129 7.86592 -4.49471 1.53425 
202 1.15106 4.12873 -1.54497 3.08957 
203 0.97248 4.69696 7.38374 -3.00393 
204 1.24672 7.15845 7.47095 -6.45834 
205 1.0767 4.34683 -4.71944 0.735772 
206 1.09031 3.61319 -2.79326 -1.47554 
207 0.810105 1.12355 7.37637 4.56608 
208 1.23296 2.9072 -8.33099 -3.08068 
209 1.25162 -2.68481 -1.03996 -8.05875 
210 0.50011 0.605928 -7.5541 1.30677 
211 1.20766 -0.558383 4.33302 4.1109 
212 1.09256 0.477473 1.0134 -8.29718 
213 0.7603 -3.00318 5.98433 -7.42512 
214 0.9184 2.92233 -1.52096 1.26873 
215 0.63959 -6.17108 -4.97034 7.66048 
216 0.85196 2.59228 -1.40377 3.92431 
217 0.953825 -5.46839 2.40914 5.25216 
218 0.714585 -8.01553 7.01431 3.78783 
219 0.96748 -1.59335 -6.47582 -6.59931 
220 0.933345 0.816505 -0.00664808 -2.74426 
221 0.802875 2.30333 -2.96543 1.47692 
222 0.774655 5.92018 -4.78576 1.85561 
223 0.975865 2.40401 4.10134 -7.5491 
224 0.85974 3.66204 -2.40524 -5.0944 
225 0.725375 -0.585293 0.834591 -4.19313 
226 1.01782 -8.16127 -8.26763 6.1423 
227 0.88925 4.47929 2.11301 6.16601 
228 1.03268 8.40902 -6.27621 -5.74313 
229 1.52173 -8.60446 2.11111 3.46964 
230 0.699955 6.84115 -0.0231229 -8.45811 
231 1.03857 -5.09662 -2.83413 3.11334 
232 1.41227 4.08415 4.01989 1.11114 
233 0.761455 -3.9342 -1.24814 5.88353 
234 1.28896 -6.08763 -5.95425 1.49951 
235 0.81744 -7.07372 -5.99073 4.1804 
236 0.89068 -4.60564 5.43701 -4.80656 
237 0.951255 -7.79127 -1.14048 -7.93442 
238 1.12642 7.67901 6.08264 6.37161 
239 0.60474 -7.64851 -8.10219 7.65452 
240 1.05706 1.87486 -6.05653 8.18077 
241 1.27209 5.27391 -6.42859 7.8321 
242 1.28838 8.56268 2.34807 -5.10227 
243 1.0754 1.63254 5.51342 -6.14596 
244 0.74359 -0.593418 -2.44177 4.92666 
245 1.0956 -7.25644 2.32278 5.36269 
246 0.99268 -5.22189 2.81812 -5.57638 
247 1.07005 8.38579 -3.08513 3.67368 
248 1.03587 4.00174 5.85301 2.29011 
249 0.966365 8.53107 7.9867 2.7523 
250 0.94763 6.37255 0.469562 -0.334662 
251 0.61731 2.01646 6.21457 -7.41189 
252 1.15909 2.12061 -8.06663 -6.78402 
253 0.864595 3.12159 6.3215 3.64098 
254 0.72896 -0.549653 -3.76553 -0.89194 
255 0.970095 -6.67025 -7.35875 4.94703 
256 0.6939 3.03144 -1.51581 -3.37854 
257 0.99239 5.6404 -5.33896 -0.720475 
258 1.16745 4.19587 8.34915 0.420464 
259 1.11732 -1.14178 -4.02573 0.60516 
260 1.03843 2.42527 -6.22525 -7.34906 
261 0.84903 -3.59471 5.7022 -3.45511 
262 1.11669 3.60297 -0.0343783 -6.38362 
263 0.96696 5.74907 5.79843 2.52714 
264 0.93284 2.54029 3.47485 -5.97426 
265 1.01503 2.48842 -0.910403 -4.66903 
266 0.91467 7.45581 -8.33787 6.17294 
267 0.882815 3.06862 -6.76808 -4.13321 
268 1.02044 2.99893 4.9377 -5.11339 
269 0.761045 4.24291 0.847639 -8.0488 
270 0.869305 -0.493198 -2.38463 -0.577213 
271 1.08335 5.23402 5.1667 -0.506993 
272 0.59265 3.7849 -3.52478 -2.77559 
273 1.11547 -2.48438 -8.10481 -8.67496 
274 1.1301 -3.05045 7.92907 2.01743 
275 0.964725 -5.20936 7.03264 -0.245222 
276 1.18256 -0.0891727 7.77118 -1.86789 
277 0.78837 -2.50287 -7.94422 2.68667 
278 1.28005 7.46815 -2.61532 -5.11404 
279 1.19405 -1.05099 7.89897 2.56724 
280 0.9421 0.558717 4.41605 -3.72306 
281 0.555305 -1.64735 -6.50193 6.22496 
282 1.1611 -2.23861 2.85208 7.13814 
283 0.90535 -7.86585 -4.26126 2.12426 
284 1.03001 -7.22728 2.40736 -3.81209 
285 0.97869 -0.272043 -3.96274 5.37671 
286 1.09391 -1.47996 -0.947886 7.60087 
287 0.923325 8.51903 0.0190091 4.02453 
288 0.962975 6.3195 -2.95352 -3.52257 
289 1.12515 4.55804 -2.89628 -7.21304 
290 1.0543 4.40053 5.40068 -3.61536 
291 0.58612 5.0112 6.74115 3.333 
292 1.14774 -4.60655 -5.97733 -7.50512 
293 1.01483 8.32277 7.66147 5.42965 
294 0.739845 -4.03932 0.339276 -2.72093 
295 1.04665 -4.077 0.568017 -4.31148 
296 1.02503 -6.85263 -4.6434 -1.51711 
297 1.15691 0.682111 2.7637 4.39293 
298 0.65229 1.61947 -2.66072 -2.33961 
299 0.8857 2.63436 -2.71459 2.99535 
300 0.89702 0.34316 -0.877796 -0.263137 
301 1.35875 5.8903 -1.05739 -6.0691 
302 0.827135 6.00085 -2.73899 -8.36693 
303 1.15816 -8.02828 7.46886 -6.32637 
304 1.03296 -8.53714 -4.42091 4.83431 
305 1.29896 0.828001 2.54069 6.59091 
306 1.02287 -0.0158543 4.46049 8.64883 
307 0.89487 -1.64576 7.20812 6.57798 
308 0.93728 6.99782 1.16858 -1.71985 
309 0.786285 1.01682 4.17283 -6.81506 
310 0.869965 -0.668581 0.559947 -2.78556 
311 1.05514 5.3875 -0.00780616 3.73466 
312 1.3656 -3.52062 -6.39335 5.50728 
313 1.17672 -3.5065 4.63471 -8.49804 
314 1.04208 1.20896 -2.34362 -0.521378 
315 0.781385 0.87348 -8.13068 -1.35816 
316 1.22797 2.07844 -7.63428 0.638757 
317 0.981105 -8.12627 -5.88793 1.23872 
318 0.974655 1.98175 -5.60375 2.66151 
319 0.62549 -1.212 -7.70618 5.15927 
320 1.40234 -6.43845 0.151145 -1.31645 
321 0.844515 8.56629 2.17872 -2.40552 
322 1.2103 8.45758 4.32305 0.671564 
323 0.72423 4.51062 -6.45855 -2.53842 
324 0.93811 -3.96387 -2.8451 -3.28886 
325 1.19823 0.250735 -6.53992 -1.85398 
326 0.70575 6.48427 -5.87732 6.21342 
327 0.84585 4.92641 -2.96171 4.74144 
328 0.88205 8.13416 5.40642 -1.65035 
329 0.78354 -2.73805 8.43406 -3.51605 
330 0.83772 2.83061 -2.68465 0.132206 
331 0.711995 6.49879 -6.26491 4.04598 
332 1.04906 2.49387 -3.65459 -5.81878 
333 1.00355 -2.52801 1.09063 8.04851 
334 1.02863 -4.65997 -2.66796 -7.32203 
335 1.00402 -5.69071 -4.17631 -6.84849 
336 0.438951 7.34687 0.825976 0.610943 
337 1.20675 4.11666 -1.06947 -7.99359 
338 0.910925 -3.36359 -6.37858 3.47607 
339 1.08489 5.09032 7.59564 -1.18718 
340 1.03978 -0.0765272 4.75481 1.47333 
341 0.925905 7.26043 -0.537134 -1.38528 
342 0.69028 -6.7049 -2.89773 -8.03485 
343 1.01393 1.77814 -8.2602 4.22664 
344 1.22623 3.18836 -6.48045 4.32992 
345 0.801525 0.450088 6.14328 -1.34308 
346 1.18793 -6.66635 4.33244 6.38437 
347 1.17067 -6.53282 7.78497 -2.3643 
348 1.12654 7.64327 -1.62969 4.75277 
349 0.961165 0.146901 7.44278 6.06414 
350 0.99228 -0.937145 -7.97202 3.69313 
351 0.70525 1.77738 6.20444 -1.38882 
352 1.03525 6.47764 7.77921 5.09513 
353 0.98112 -7.0387 -3.1506 5.81047 
354 1.32814 8.4683 -1.29859 -3.31031 
355 1.04987 -6.85793 4.35192 3.00954 
356 1.0351 0.158766 5.55678 -4.98825 
357 1.10637 -7.87304 5.78213 5.73326 
358 1.18545 -3.68172 0.844183 -7.68214 
359 0.988125 -7.97212 -1.3207 3.62977 
360 0.560705 5.44185 7.88749 6.46172 
361 1.12586 3.45558 2.95033 4.37775 
362 0.78876 -8.16511 -8.56745 -5.22254 
363 0.87683 2.80015 0.745744 -8.16169 
364 0.85488 3.91196 -6.10063 6.24425 
365 1.15549 -7.54491 4.0994 -4.81369 
366 0.928555 -2.7122 3.22132 2.80199 
367 0.78114 -8.13789 4.20119 -7.95616 
368 0.886185 -4.69208 -1.07654 -3.96521 
369 1.10314 -3.4979 -0.568422 7.40104 
370 1.00725 -2.00817 -4.0011 -1.42469 
371 1.10384 -1.55824 7.98498 -0.507036 
372 1.04746 -0.739438 6.21916 3.55323 
373 0.669675 4.0045 -5.92946 -8.14049 
374 0.99584 1.00502 -2.90215 -4.03616 
375 0.71847 2.3107 -2.48109 -4.69822 
376 1.21449 -7.13153 -1.03149 7.51393 
377 0.775165 3.4394 7.45451 -1.06132 
378 0.717325 -4.25621 6.0403 5.34637 
379 0.85625 -6.24928 -6.58161 -1.07854 
380 0.849335 -2.94994 0.439539 3.036 
381 0.992965 -4.64437 1.76006 0.875795 
382 0.91115 0.947817 2.11748 -3.75288 
383 0.79087 -3.7572 3.99411 -5.72534 
384 1.06014 -1.04697 2.78067 -6.64824 
385 1.24654 0.137138 -2.73452 -7.50675 
386 0.659155 -5.55651 0.605223 -3.70498 
387 1.00591 0.889148 6.1029 6.89137 
388 0.72474 -0.709251 2.33611 7.58806 
389 0.986655 -5.13666 -8.18101 4.96398 
390 0.823845 -1.8376 7.86244 7.95951 
391 1.17753 7.57075 -6.40008 7.33809 
392 0.757235 -0.836177 -0.967329 -7.36481 
393 0.88361 4.04925 4.53677 3.38866 
394 1.19668 0.834785 -1.11361 3.80174 
395 0.753015 0.637951 2.94439 1.85497 
396 1.01096 2.54573 7.34842 -4.11764 
397 1.12931 -2.6104 -8.01207 6.66174 
398 0.94201 2.21058 -1.9293 -6.0048 
399 1.01874 -2.87939 7.031 -4.28127 
400 1.15303 5.46434 -7.81889 3.99879 
401 0.91088 5.406 -8.32815 5.79788 
402 0.91502 1.59996 4.39939 6.12011 
403 1.11383 4.86084 2.02427 -3.43628 
404 0.758545 -2.96653 8.26087 0.294292 
405 0.864865 4.10143 -4.36836 2.4262 
406 1.01858 7.87656 6.23618 0.899345 
407 0.977375 3.47951 1.78109 1.39007 
408 0.87647 3.95184 1.69521 3.26956 
409 1.06699 -6.98682 7.997 2.47365 
410 0.874225 -5.43653 -0.71901 -5.29212 
411 1.26676 -1.42793 -0.76697 0.463167 
412 1.2549 -1.05337 -4.63908 -8.61179 
413 1.39209 5.29224 -2.8468 0.0857539 
414 1.03369 -3.25818 -2.70339 6.33579 
415 1.05058 4.59118 -2.92747 -3.79954 
416 0.99448 -4.65369 1.17585 -5.94137 
417 1.00623 -0.610624 -0.815166 -1.7055 
418 0.93074 4.41159 6.53458 5.87462 
419 1.53357 7.07713 -4.89671 -4.16225 
420 0.99045 3.82654 -0.951958 5.40322 
421 0.615955 -3.00415 -0.288893 -5.12787 
422 0.805845 -5.85907 7.49997 -4.13435 
423 1.09967 6.71372 -7.76216 1.67257 
424 1.10456 4.63536 7.76585 4.57989 
425 0.961465 2.52588 -0.0451511 -3.14562 
426 1.00187 -7.77478 -3.16453 -1.12453 
427 1.09575 1.72149 -0.746748 -1.38873 
428 0.988925 8.65494 -1.09385 6.34665 
429 0.91952 8.03784 6.35197 8.22565 
430 0.9882 6.25663 -5.93736 0.837121 
431 0.959105 6.92263 -1.34002 -7.88575 
432 0.97088 -7.36832 -5.78155 -0.277778 
433 0.663745 -8.17317 6.15413 7.28463 
434 1.18197 -6.51544 -1.16169 -3.79496 
435 1.18823 -6.66687 -6.38605 -7.4426 
436 1.16261 -3.37138 -6.64309 -5.99227 
437 0.792555 -8.3931 3.97208 6.46508 
438 0.484577 -6.43547 -7.16281 -6.16994 
439 0.92657 -4.0845 2.77071 -0.470069 
440 0.884175 -4.51666 0.317747 3.53914 
441 0.79147 -7.41238 0.141711 -4.39921 
442 0.75122 -4.10072 5.2265 -6.16585 
443 0.823595 8.12123 -8.22352 4.72895 
444 0.741835 -4.92182 -0.214741 -6.52107 
445 0.77703 7.607 -2.02692 -1.32215 
446 0.80908 6.46076 4.67585 7.20318 
447 1.07223 7.3125 3.5765 4.40434 
448 1.17921 -1.03957 -6.26121 4.42407 
449 1.16203 -6.2794 5.75828 -7.88511 
450 0.842715 -7.75955 7.44605 -8.10532 
451 0.90587 1.7754 2.79483 2.91413 
452 0.92992 -7.70749 -6.36142 2.80261 
453 1.00345 4.24255 -2.20909 6.53901 
454 1.03615 5.40723 -2.66823 -2.0702 
455 0.50593 -5.64073 2.65812 1.18926 
456 0.91301 -5.20453 5.99961 -1.51449 
457 0.784915 4.15647 -3.24581 3.38317 
458 0.9606 4.54852 -1.21549 -3.3123 
459 0.909565 -5.91446 -7.78774 -2.00221 
460 1.38309 5.17387 2.05487 0.110383 
461 1.21937 -6.83827 7.59072 5.875 
462 0.977225 -2.57521 5.91258 2.22454 
463 0.85466 -5.02932 -6.94119 3.92112 
464 1.08045 -5.00286 7.88617 2.4319 
465 1.42131 -5.23471 -0.825957 -8.31167 
466 1.50598 2.06627 0.976809 4.7191 
467 0.975 -3.56135 7.74065 6.55766 
468 0.98019 -0.468119 3.87631 -5.10879 
469 0.90881 1.85092 7.76146 6.24521 
470 0.601385 -6.64273 -3.98551 -0.167092 
471 1.0713 6.47168 -0.959118 7.67203 
472 1.14553 1.3098 -7.36886 2.61183 
473 0.98967 -0.767478 0.800698 7.63455 
474 0.77163 -5.8768 -1.69953 0.893894 
475 0.880825 -5.39486 0.791779 6.6199 
476 1.29651 -7.31839 6.81263 0.602947 
477 1.15044 7.41671 0.521924 2.09785 
478 1.06428 8.44647 -4.687 -0.234604 
479 1.05399 3.31593 -5.90391 -0.435198 
480 0.73342 5.81361 3.2276 7.19623 
481 1.05497 1.39836 2.71281 -8.66177 
482 1.21856 6.81321 6.59464 -0.99518 
483 1.03697 1.00468 6.08564 0.21114 
484 1.0099 -4.821 -4.18739 1.39936 
485 1.32919 0.753886 -8.43166 -4.26069 
486 0.859115 1.76843 2.41682 -5.0547 
487 0.92957 2.38087 4.33008 2.2426 
488 1.02146 5.72265 4.4706 8.61089 
489 0.96255 5.30664 -4.48751 4.99126 
490 1.15464 1.8025 4.5078 7.94643 
491 1.12318 -2.80387 -2.42043 0.626244 
492 1.0289 4.66821 -6.16222 1.85249 
493 0.98085 7.59834 -7.63762 -8.39424 
494 0.725875 7.24695 -3.00091 0.895013 
495 0.491459 5.35251 -4.2629 2.68539 
496 1.07068 -6.07062 2.22082 -2.36405 
497 1.24997 0.977035 -4.10457 0.483528 
498 0.880665 5.47801 3.01206 2.181 
499 1.17965 -7.05539 5.8725 -1.47853 
500 1.18637 -6.41038 0.569836 -6.99489 
501 1.16544 -0.100176 -6.90606 -5.58406 
502 1.07966 -1.75319 4.70246 7.75615 
503 0.93033 7.4428 6.15291 2.76607 
504 0.833365 5.78456 0.404326 -3.06341 
505 1.03504 5.39865 -3.20231 -5.45681 
506 1.12574 0.909345 -6.19399 -3.96959 
507 0.981415 8.12588 2.57522 -7.07546 
508 0.97466 1.89438 -6.78462 -5.42267 
509 1.11699 -4.28237 -8.44056 -3.20075 
510 0.97017 3.86702 -2.92276 1.72765 
511 0.9221 -7.6287 -1.61156 -1.81175 
512 0.87448 -8.5763 -5.03435 7.78395 
513 0.86421 7.77026 4.24246 -5.05309 
514 0.841405 6.14035 4.51321 5.19394 
515 1.11536 -6.41588 -8.0641 -8.67751 
516 0.755625 -6.92349 -0.666298 0.715367 
517 1.05041 8.61725 4.47534 2.68812 
518 1.08763 5.27926 -6.29082 5.25271 
519 1.24849 -4.19222 5.9736 7.23139 
520 1.03442 -4.55477 2.67186 -8.40634 
521 0.81761 1.71913 -1.50794 -2.94828 
522 1.07455 -2.06619 0.751635 4.76266 
523 0.837155 1.55182 -4.97533 -6.67362 
524 0.498024 8.67855 -5.28019 -3.30768 
525 1.02008 6.38841 8.03395 0.341551 
526 1.075 -1.64351 -7.51776 -0.244964 
527 1.0396 -4.88094 7.47017 5.37882 
528 0.92606 -4.52925 5.9513 -7.36398 
529 1.35664 -4.86768 -2.70007 -5.19022 
530 0.893655 -1.48919 -4.82916 2.93987 
531 0.952345 0.807963 4.10839 2.80097 
532 1.07153 8.41138 2.33918 6.26417 
533 0.977775 -3.92176 0.394903 5.7867 
534 1.01056 -6.50494 -7.54372 3.16902 
535 1.004 -7.3076 -8.24274 -7.04616 
536 0.96656 -5.16271 5.53475 -3.09485 
537 0.94202 1.14962 -7.21792 6.85612 
538 0.89053 2.71765 -4.3825 1.29984 
539 0.733295 -0.537395 -8.1349 -7.9656 
540 0.860725 -2.36336 -7.56664 1.30426 
541 0.690055 5.09735 6.12771 -6.62716 
542 1.00327 0.648807 3.68196 -2.17068 
543 1.11542 -3.09463 7.20714 -2.40435 
544 0.739135 8.07814 -3.06843 -0.155563 
545 1.06222 4.76288 5.19022 -5.46162 
546 1.17605 7.85258 6.9802 -2.87254 
547 0.815775 -6.25486 -2.64627 -6.76992 
548 0.757195 -3.60407 6.40066 -8.51979 
549 0.96962 -4.0195 -1.12171 -2.45545 
550 0.928275 -4.08031 8.38268 -1.48876 
551 0.883745 3.22229 -3.5205 6.05537 
552 0.63587 -2.14161 0.343894 2.01282 
553 0.79634 -0.491056 -5.49954 -0.614218 
554 1.10144 -1.3964 7.42833 -5.92785 
555 1.57583 -6.32655 4.53935 0.73842 
556 1.15189 2.82646 1.79487 -3.52328 
557 1.26116 8.43128 -6.08792 -1.93313 
558 0.99813 8.48413 -4.14705 -2.06789 
559 1.05279 6.31859 -1.22221 -3.1324 
560 1.05625 0.200983 -7.3787 -0.0359585 
561 1.08394 8.48215 8.13729 0.783291 
562 0.907285 6.49478 6.48007 7.68794 
563 0.906035 -4.37433 0.46399 -1.28213 
564 1.17509 -3.42203 7.08187 -6.1641 
565 0.901175 -4.81812 -7.81672 -5.13347 
566 1.01414 6.02914 6.35399 0.877983 
567 0.963635 -6.61325 5.88529 -3.85908 
568 0.85893 4.60918 -6.82185 -0.907018 
569 1.09103 5.88019 -1.24961 5.56601 
570 0.86466 3.77823 2.16861 -5.15188 
571 0.74443 7.43893 -1.74518 0.489528 
572 0.869045 -0.848329 -3.02428 3.68298 
573 0.91074 -6.04384 7.98525 4.01734 
574 1.00182 8.26386 3.71199 -3.07961 
575 0.6029 -0.120695 -4.62988 1.84529 
576 1.3721 1.49292 -0.751241 -7.45851 
577 0.880375 -5.48703 2.15371 -7.06979 
578 0.611175 -3.79698 6.55259 2.57659 
579 0.822235 -5.78585 3.29465 2.37357 
580 1.03112 -5.4854 -0.868559 6.28201 
581 1.03662 -0.0746158 -6.07585 2.65424 
582 0.817025 -1.27277 -6.51168 -8.13262 
583 0.88071 -7.22092 -6.50837 -5.49877 
584 0.99768 2.64462 5.9976 7.05967 
585 1.02031 0.794377 2.63517 -6.92401 
586 0.7954 7.96513 8.07974 7.33334 
587 0.968295 0.0794434 -8.42255 -6.64483 
588 0.935105 -7.32111 5.75707 3.90781 
589 1.15591 3.25127 0.171077 -0.215326 
590 1.0411 4.22592 6.39342 0.517409 
591 0.859115 -1.86705 -4.4425 -4.98739 
592 0.68216 -2.35847 6.21253 -8.57395 
593 1.16304 1.88927 -1.18148 5.58768 
594 0.9936 -7.83819 1.65358 -1.18229 
595 0.494855 -6.65247 6.63615 4.59136 
596 0.938355 -4.10059 -7.93165 3.17757 
597 0.853255 -7.70361 1.98236 -7.17155 
598 1.0919 0.585249 0.744779 -1.04916 
599 1.06242 -8.01994 5.62141 -7.04232 
600 0.72961 7.04581 2.46418 0.00924385 
601 1.1322 -6.34086 -7.92025 6.71959 
602 1.16413 4.08447 7.78775 2.63089 
603 0.94651 7.74477 -0.662978 -5.06669 
604 0.81282 8.12859 5.0706 4.76346 
605 0.917845 7.49755 -7.21544 3.72185 
606 0.928095 6.55698 -2.80026 -6.88288 
607 1.20137 -1.07047 -0.825086 -4.0093 
608 0.994335 2.82458 3.99046 -2.37888 
609 1.20145 1.04456 -6.36438 4.45183 
610 0.606115 -6.02594 -6.14943 -5.97254 
611 1.26204 -4.31105 2.42814 6.93582 
612 1.28199 -3.44331 -5.65831 1.65226 
613 0.91403 -3.03691 0.0480145 1.06587 
614 1.08189 2.02559 7.89551 -0.336516 
615 1.17639 -5.28269 6.35258 3.80561 
616 0.902795 3.48682 -2.49426 4.54731 
617 0.57309 7.08678 3.75353 -4.05407 
618 1.09712 5.99578 3.88232 -2.87396 
619 0.82738 7.44806 -0.337747 0.475465 
620 1.13799 -5.52254 3.98372 -4.11933 
621 1.05924 -7.22974 0.708729 6.53566 
622 1.02442 -3.09086 1.39744 0.00664042 
623 0.86182 -1.10322 -1.1986 4.41267 
624 0.99559 -6.46363 0.841261 8.45116 
625 1.29723 -3.81118 -2.73421 -1.32304 
626 1.06329 3.51131 -0.912832 -1.92943 
627 0.82618 -1.99234 -2.60584 -3.00807 
628 0.8835 7.98537 0.741453 -0.585275 
629 1.14803 3.79383 -6.83921 -5.79386 
630 1.33696 -2.29256 -4.50863 6.77744 
631 1.12583 4.40776 5.90122 7.6174 
632 0.85537 6.71948 -3.30557 5.08889 
633 0.965315 -2.34664 -1.14214 5.95783 
634 0.85946 5.06631 -6.55873 -7.53079 
635 0.781605 -2.19062 2.76597 0.241902 
636 0.91572 -3.93037 8.25463 -4.81935 
637 0.846395 5.09708 -6.17119 3.50329 
638 1.22078 -4.62257 4.88584 2.50919 
639 0.91915 4.98568 4.36292 6.95148 
640 0.76929 -1.09534 3.22586 -0.53834 
641 0.60767 -6.16499 -5.98087 3.25532 
642 1.04543 -2.35093 7.56985 -7.76758 
643 1.13416 1.53242 2.12707 -2.02962 
644 1.09064 1.27122 -0.899489 1.25467 
645 0.89806 -7.72284 1.01067 -5.86501 
646 0.839545 -8.14426 -7.95606 -8.48104 
647 0.75514 4.24819 3.4888 -5.66699 
648 0.96422 -3.76166 1.69941 2.57052 
649 0.80957 2.96254 -5.42384 -4.78671 
650 0.73893 -8.41325 0.970295 5.49049 
651 0.64772 6.98468 5.23991 -0.0556688 
652 0.962815 -4.48979 -8.11365 6.63094 
653 1.17219 -5.83931 3.95038 -6.9568 
654 0.641295 -8.51337 7.76674 8.22083 
655 1.04317 -7.66778 8.44563 4.29767 
656 0.998035 5.3397 0.535801 5.57766 
657 1.19148 6.07212 -7.53956 -0.250575 
658 0.84418 -0.773071 -7.5748 2.1226 
659 1.23455 -6.81189 -4.4295 -3.50627 
660 1.02814 1.90542 -4.57716 -2.76862 
661 0.8273 -3.69701 -3.22 2.33698 
662 1.1981 -4.12756 -4.71389 -5.83619 
663 1.05262 5.8333 3.85495 -4.78099 
664 0.939155 -8.18083 0.877165 0.415657 
665 1.17772 3.12786 -4.52754 -8.13288 
666 1.3035 -8.26461 -6.26322 5.67584 
667 0.964585 3.04316 -7.92017 2.9132 
668 1.2693 -1.98107 -2.71146 -6.76855 
669 0.898905 -8.07697 0.191497 1.89793 
670 1.06442 7.34264 5.14011 -3.63811 
671 0.718885 2.79373 -5.17293 -6.1207 
672 0.66908 7.09742 0.764439 8.00888 
673 1.16837 -2.5279 3.23851 -1.52836 
674 1.0731 -0.664954 -3.91724 -2.73039 
675 0.98666 7.7355 -8.06205 -5.12055 
676 0.956545 3.8082 7.94655 -8.51313 
677 0.481739 -2.3904 4.69955 -1.92883 
678 0.82144 -4.21472 -6.01932 -0.0944211 
679 0.854915 -3.5642 -4.44705 5.29512 
680 0.969535 0.248219 8.11424 0.0747404 
681 0.96363 -2.23284 0.0480476 -2.63577 
682 1.00995 5.58302 -1.95599 1.98112 
683 1.07801 7.40636 -7.06925 -3.60575 
684 0.92869 2.66549 6.23921 -0.253027 
685 1.03773 5.39089 7.6247 -7.7406 
686 0.753635 -1.4667 -8.63913 1.02471 
687 1.00463 6.42413 -8.55094 -3.99684 
688 1.27179 1.2068 -8.03334 8.62865 
689 0.85948 0.890568 -3.06693 -5.75805 
690 0.873585 8.03542 -5.74929 4.10545 
691 1.02005 5.16455 -6.7192 -3.98241 
692 1.10842 -2.66012 -7.91703 4.323 
693 0.98023 -1.1852 5.5566 -7.9882 
694 0.67702 -1.175 -1.79897 3.18483 
695 0.92218 -2.99459 -4.72203 -8.50322 
696 0.55605 -4.73636 6.45004 2.18119 
697 0.758 4.37676 -1.48298 1.10053 
698 0.878455 -6.44692 2.90736 3.83096 
699 0.99807 0.303615 6.15005 -3.02484 
700 0.712385 3.68004 -1.77961 -6.3406 
701 0.923315 -5.99567 8.23592 0.97038 
702 1.11834 -8.56418 7.19504 -1.0824 
703 0.97356 -1.12228 0.839214 -5.60632 
704 0.724 0.580189 -2.61084 5.47089 
705 0.997325 -4.62431 -4.27929 -8.31264 
706 0.76554 -5.65928 -6.54548 -4.80351 
707 0.90536 -0.0864897 -2.30621 7.9778 
708 1.01686 -4.52715 0.233984 1.8175 
709 0.680705 3.61009 -6.87028 -1.75846 
710 0.831375 4.30268 3.03715 7.39288 
711 0.60734 5.49292 -3.27736 2.605 
712 1.39247 -1.94389 4.73938 0.412775 
713 1.03958 5.76396 1.02498 -8.51735 
714 0.878305 4.55223 4.50166 5.01287 
715 0.89027 5.6527 -2.92191 6.11045 
716 0.836195 -2.91311 6.15466 5.79264 
717 0.99184 -3.8222 -6.38114 7.85874 
718 1.14776 -1.54997 6.08488 -2.25674 
719 0.75582 -7.34922 -7.92782 1.75726 
720 1.0192 -0.491739 4.59095 -6.72541 
721 1.16351 5.80378 -4.57204 6.83521 
722 1.1838 -5.61871 4.19404 8.33389 
723 1.02429 5.82863 5.75291 6.24589 
724 0.852975 2.71953 -0.0083165 6.64589 
725 0.796515 -7.47444 0.389517 3.267 
726 0.778415 -4.22525 0.102371 0.16752 
727 0.78894 3.23298 2.83039 2.56728 
728 0.760805 3.82841 -3.88355 -5.00582 
729 0.817125 5.0237 2.55902 4.79273 
730 0.821025 5.83583 5.38512 -2.11014 
731 1.15945 -7.61353 -7.53307 -2.65304 
732 0.936255 6.64577 6.0086 -8.11068 
733 1.01194 -1.58919 4.52676 5.79206 
734 0.877125 0.855992 -6.24946 1.20369 
735 1.03293 3.48908 5.65354 -7.02727 
736 1.54156 -4.18072 -6.28534 -2.25986 
737 1.00877 -6.17533 0.799387 -5.08319 
738 1.28171 4.53707 -0.327309 7.30252 
739 1.00011 -0.704628 -8.02142 -2.81883 
740 0.84326 3.97654 0.333374 4.44301 
741 1.12447 -7.83692 4.07779 4.66679 
742 1.0447 -8.53839 0.368287 -7.33138 
743 0.991335 -3.25351 4.50232 6.27305 
744 0.641395 4.35728 -1.8886 7.99197 
745 0.98895 -8.02926 -1.44223 1.4904 
746 1.01742 -6.54104 -7.61296 0.321901 
747 0.93854 1.75371 5.7583 -4.27091 
748 1.24568 -6.48455 2.43887 7.3089 
749 0.944335 4.52249 0.207044 1.15097 
750 0.572635 4.50134 3.12678 3.12336 
751 1.16979 -1.91198 -3.18978 2.25557 
752 0.68365 -5.22345 -6.70728 6.31396 
753 1.0695 2.31064 6.40531 5.30044 
754 1.04978 1.71342 7.59473 -7.78992 
755 0.90429 4.05949 6.75562 -4.63572 
756 1.20804 6.97392 2.25271 -3.55603 
757 1.18502 0.677958 0.859134 -6.18866 
758 1.17013 6.42907 -7.94274 -6.50899 
759 0.7631 1.90034 4.92714 -1.09765 
760 1.05879 -2.21527 2.78849 -8.25747 
761 0.80822 0.943987 7.0586 -4.1543 
762 0.773225 -2.30836 -7.33406 -4.66727 
763 1.01397 2.36066 7.5852 7.86315 
764 1.07183 3.61868 -8.18068 5.33493 
765 0.99384 -5.51105 -3.0672 0.228594 
766 1.14011 -7.59258 -6.51125 7.77975 
767 1.05093 -8.23777 5.85974 -5.17962 
768 0.88646 7.87974 -1.18806 -6.58003 
769 1.05976 -3.69595 -1.18088 -6.22805 
770 0.752705 5.69161 0.305477 2.18867 
771 0.77314 7.68562 -6.51355 -7.23128 
772 1.13237 -6.05916 -7.97735 -3.81202 